
     Program PWSCF v.6.4.1 starts on 13Dec2021 at 13:37: 9 

     This program is part of the open-source Quantum ESPRESSO suite
     for quantum simulation of materials; please cite
         "P. Giannozzi et al., J. Phys.:Condens. Matter 21 395502 (2009);
         "P. Giannozzi et al., J. Phys.:Condens. Matter 29 465901 (2017);
          URL http://www.quantum-espresso.org", 
     in publications or presentations arising from this work. More details at
     http://www.quantum-espresso.org/quote

     Parallel version (MPI), running on     8 processors

     MPI processes distributed on     1 nodes
     R & G space division:  proc/nbgrp/npool/nimage =       8
     Reading input from 01_rutile_scf.in

     Current dimensions of program PWSCF are:
     Max number of different atomic species (ntypx) = 10
     Max number of k-points (npk) =  40000
     Max angular momentum in pseudopotentials (lmaxx) =  3

     IMPORTANT: XC functional enforced from input :
     Exchange-correlation      = B3LYP ( 7 12  9  7 0 0)
     EXX-fraction              =        0.20
     Any further DFT definition will be discarded
     Please, verify this is what you really want


     Subspace diagonalization in iterative solution of the eigenvalue problem:
     one sub-group per band group will be used
     scalapack distributed-memory algorithm (size of sub-group:  2*  2 procs)

     EXX: setup a grid of 12 q-points centered on each k-point
     (k+q)-points:
   0.0000000   0.0000000   0.0000000         1    1
   0.0000000   0.0000000   0.5175141         2    1
   0.0000000   0.0000000  -0.5175141         2   -1
   0.0000000  -0.5000000   0.0000000         3    1
   0.0000000  -0.5000000   0.5175141         4    1
   0.0000000   0.5000000  -0.5175141         4   -1
  -0.5000000   0.0000000   0.0000000         3    5
   0.5000000   0.0000000   0.5175141         4   -5
  -0.5000000   0.0000000  -0.5175141         4    5
  -0.5000000  -0.5000000   0.0000000         5    1
  -0.5000000  -0.5000000   0.5175141         6    1
   0.5000000   0.5000000  -0.5175141         6   -1
 
     Parallelization info
     --------------------
     sticks:   dense  smooth     PW     G-vecs:    dense   smooth      PW
     Min          89      89     27                 1158     1158     201
     Max          91      91     28                 1159     1159     204
     Sum         717     717    221                 9271     9271    1623
 


     bravais-lattice index     =            6
     lattice parameter (alat)  =       8.6549  a.u.
     unit-cell volume          =     417.5895 (a.u.)^3
     number of atoms/cell      =            6
     number of atomic types    =            2
     number of electrons       =        48.00
     number of Kohn-Sham states=           25
     kinetic-energy cutoff     =      30.0000  Ry
     charge density cutoff     =     120.0000  Ry
     cutoff for Fock operator  =     120.0000  Ry
     convergence threshold     =      1.0E-06
     mixing beta               =       0.7000
     number of iterations used =            8  plain     mixing
     Exchange-correlation      = B3LYP ( 7 12  9  7 0 0)
     EXX-fraction              =        0.20

     celldm(1)=   8.654946  celldm(2)=   0.000000  celldm(3)=   0.644105
     celldm(4)=   0.000000  celldm(5)=   0.000000  celldm(6)=   0.000000

     crystal axes: (cart. coord. in units of alat)
               a(1) = (   1.000000   0.000000   0.000000 )  
               a(2) = (   0.000000   1.000000   0.000000 )  
               a(3) = (   0.000000   0.000000   0.644105 )  

     reciprocal axes: (cart. coord. in units 2 pi/alat)
               b(1) = (  1.000000  0.000000  0.000000 )  
               b(2) = (  0.000000  1.000000  0.000000 )  
               b(3) = (  0.000000  0.000000  1.552542 )  


     PseudoPot. # 1 for Ti read from file:
     ./Ti.pbe-sp-van_ak.UPF
     MD5 check sum: f98fea3e8887528921fefa5636a534ca
     Pseudo is Ultrasoft, Zval = 12.0
     Generated by new atomic code, or converted to UPF format
     Using radial grid of  851 points,  6 beta functions with: 
                l(1) =   0
                l(2) =   0
                l(3) =   1
                l(4) =   1
                l(5) =   2
                l(6) =   2
     Q(r) pseudized with  8 coefficients,  rinner =    1.000   1.000   1.000
                                                       1.000   1.000

     PseudoPot. # 2 for O  read from file:
     ./O.pbe-van_ak.UPF
     MD5 check sum: 572909515f9aa9498032b6eb5528d5f9
     Pseudo is Ultrasoft, Zval =  6.0
     Generated by new atomic code, or converted to UPF format
     Using radial grid of  737 points,  4 beta functions with: 
                l(1) =   0
                l(2) =   0
                l(3) =   1
                l(4) =   1
     Q(r) pseudized with  8 coefficients,  rinner =    0.800   0.800   0.800


     atomic species   valence    mass     pseudopotential
        Ti            12.00    47.86700     Ti( 1.00)
        O              6.00    15.99900     O ( 1.00)

     16 Sym. Ops., with inversion, found ( 8 have fractional translation)



   Cartesian axes

     site n.     atom                  positions (alat units)
         1           Ti  tau(   1) = (   0.0000000   0.0000000   0.0000000  )
         2           Ti  tau(   2) = (   0.5000000   0.5000000   0.3220524  )
         3           O   tau(   3) = (   0.3049370   0.3049370   0.0000000  )
         4           O   tau(   4) = (  -0.3049370  -0.3049370   0.0000000  )
         5           O   tau(   5) = (   0.8049370   0.1950630   0.3220524  )
         6           O   tau(   6) = (   0.1950630   0.8049370   0.3220524  )

     number of k points=     6
                       cart. coord. in units 2pi/alat
        k(    1) = (   0.0000000   0.0000000   0.0000000), wk =   0.1666667
        k(    2) = (   0.0000000   0.0000000   0.5175141), wk =   0.3333333
        k(    3) = (   0.0000000  -0.5000000   0.0000000), wk =   0.3333333
        k(    4) = (   0.0000000  -0.5000000   0.5175141), wk =   0.6666667
        k(    5) = (  -0.5000000  -0.5000000   0.0000000), wk =   0.1666667
        k(    6) = (  -0.5000000  -0.5000000   0.5175141), wk =   0.3333333

     Dense  grid:     9271 G-vectors     FFT dimensions: (  32,  32,  20)

     Estimated max dynamical RAM per process >      18.90 MB

     Estimated total dynamical RAM >     151.19 MB

     Initial potential from superposition of free atoms

     starting charge   45.99991, renormalised to   48.00000
     Starting wfcs are   36 randomized atomic wfcs

     total cpu time spent up to now is        1.2 secs

     Self-consistent Calculation

     iteration #  1     ecut=    30.00 Ry     beta= 0.70
     Davidson diagonalization with overlap
     ethr =  1.00E-02,  avg # of iterations =  2.7

     total cpu time spent up to now is        1.3 secs

     total energy              =    -361.45451173 Ry
     Harris-Foulkes estimate   =    -362.63994377 Ry
     estimated scf accuracy    <       1.48299558 Ry

     iteration #  2     ecut=    30.00 Ry     beta= 0.70
     Davidson diagonalization with overlap
     ethr =  3.09E-03,  avg # of iterations =  5.5

     total cpu time spent up to now is        1.8 secs

     total energy              =    -358.23331460 Ry
     Harris-Foulkes estimate   =    -364.79015427 Ry
     estimated scf accuracy    <      30.64616189 Ry

     iteration #  3     ecut=    30.00 Ry     beta= 0.70
     Davidson diagonalization with overlap
     ethr =  3.09E-03,  avg # of iterations =  5.5

     total cpu time spent up to now is        2.3 secs

     total energy              =    -362.35732893 Ry
     Harris-Foulkes estimate   =    -362.40896715 Ry
     estimated scf accuracy    <       0.30979661 Ry

     iteration #  4     ecut=    30.00 Ry     beta= 0.70
     Davidson diagonalization with overlap
     ethr =  6.45E-04,  avg # of iterations =  1.3

     total cpu time spent up to now is        2.4 secs

     total energy              =    -362.30742622 Ry
     Harris-Foulkes estimate   =    -362.36212261 Ry
     estimated scf accuracy    <       0.21345584 Ry

     iteration #  5     ecut=    30.00 Ry     beta= 0.70
     Davidson diagonalization with overlap
     ethr =  4.45E-04,  avg # of iterations =  3.0

     total cpu time spent up to now is        2.6 secs

     total energy              =    -362.32014702 Ry
     Harris-Foulkes estimate   =    -362.32625666 Ry
     estimated scf accuracy    <       0.02726025 Ry

     iteration #  6     ecut=    30.00 Ry     beta= 0.70
     Davidson diagonalization with overlap
     ethr =  5.68E-05,  avg # of iterations =  3.5

     total cpu time spent up to now is        2.9 secs

     total energy              =    -362.32299847 Ry
     Harris-Foulkes estimate   =    -362.32396714 Ry
     estimated scf accuracy    <       0.00449508 Ry

     iteration #  7     ecut=    30.00 Ry     beta= 0.70
     Davidson diagonalization with overlap
     ethr =  9.36E-06,  avg # of iterations =  4.8

     total cpu time spent up to now is        3.1 secs

     total energy              =    -362.34974658 Ry
     Harris-Foulkes estimate   =    -362.34971833 Ry
     estimated scf accuracy    <       0.01004793 Ry

     iteration #  8     ecut=    30.00 Ry     beta= 0.70
     Davidson diagonalization with overlap
     ethr =  9.36E-06,  avg # of iterations =  1.0

     total cpu time spent up to now is        3.2 secs

     total energy              =    -362.34763409 Ry
     Harris-Foulkes estimate   =    -362.34978371 Ry
     estimated scf accuracy    <       0.00978883 Ry

     iteration #  9     ecut=    30.00 Ry     beta= 0.70
     Davidson diagonalization with overlap
     ethr =  9.36E-06,  avg # of iterations =  3.2

     total cpu time spent up to now is        3.4 secs

     total energy              =    -362.34812572 Ry
     Harris-Foulkes estimate   =    -362.34833773 Ry
     estimated scf accuracy    <       0.00124126 Ry

     iteration # 10     ecut=    30.00 Ry     beta= 0.70
     Davidson diagonalization with overlap
     ethr =  2.59E-06,  avg # of iterations =  3.3

     total cpu time spent up to now is        3.6 secs

     total energy              =    -362.34819972 Ry
     Harris-Foulkes estimate   =    -362.34826896 Ry
     estimated scf accuracy    <       0.00031042 Ry

     iteration # 11     ecut=    30.00 Ry     beta= 0.70
     Davidson diagonalization with overlap
     ethr =  6.47E-07,  avg # of iterations =  3.3

     total cpu time spent up to now is        3.8 secs

     total energy              =    -362.34827428 Ry
     Harris-Foulkes estimate   =    -362.34829654 Ry
     estimated scf accuracy    <       0.00010718 Ry

     iteration # 12     ecut=    30.00 Ry     beta= 0.70
     Davidson diagonalization with overlap
     ethr =  2.23E-07,  avg # of iterations =  1.7

     total cpu time spent up to now is        4.0 secs

     total energy              =    -362.34827224 Ry
     Harris-Foulkes estimate   =    -362.34827934 Ry
     estimated scf accuracy    <       0.00003511 Ry

     iteration # 13     ecut=    30.00 Ry     beta= 0.70
     Davidson diagonalization with overlap
     ethr =  7.31E-08,  avg # of iterations =  3.5

     total cpu time spent up to now is        4.2 secs

     total energy              =    -362.34828302 Ry
     Harris-Foulkes estimate   =    -362.34828277 Ry
     estimated scf accuracy    <       0.00001047 Ry

     iteration # 14     ecut=    30.00 Ry     beta= 0.70
     Davidson diagonalization with overlap
     ethr =  2.18E-08,  avg # of iterations =  1.8

     total cpu time spent up to now is        4.5 secs

     total energy              =    -362.34828107 Ry
     Harris-Foulkes estimate   =    -362.34828326 Ry
     estimated scf accuracy    <       0.00000954 Ry

     iteration # 15     ecut=    30.00 Ry     beta= 0.70
     Davidson diagonalization with overlap
     ethr =  1.99E-08,  avg # of iterations =  2.8

     total cpu time spent up to now is        4.6 secs

     total energy              =    -362.34828172 Ry
     Harris-Foulkes estimate   =    -362.34828185 Ry
     estimated scf accuracy    <       0.00000148 Ry

     iteration # 16     ecut=    30.00 Ry     beta= 0.70
     Davidson diagonalization with overlap
     ethr =  3.08E-09,  avg # of iterations =  3.7

     total cpu time spent up to now is        5.0 secs

     End of self-consistent calculation

          k = 0.0000 0.0000 0.0000 (  1161 PWs)   bands (ev):

   -47.3888 -47.3716 -23.8656 -23.8656 -23.6942 -23.6942 -23.6530 -23.6163
    -8.7398  -7.5740  -6.8201  -6.8201   3.7515   4.1146   4.5403   5.6160
     5.6160   6.9396   6.9396   7.4989   8.7836   9.0410   9.0410   9.4823
    11.3697

          k = 0.0000 0.0000 0.5175 (  1158 PWs)   bands (ev):

   -47.3536 -47.3446 -23.9863 -23.9722 -23.7672 -23.7672 -23.6870 -23.6870
    -7.8145  -7.2213  -7.2213  -7.1736   4.9261   4.9577   5.4560   5.4560
     5.7216   5.7681   6.4052   7.4516   7.4516   7.9138   7.9138   8.4962
    11.8253

          k = 0.0000-0.5000 0.0000 (  1148 PWs)   bands (ev):

   -47.3800 -47.3800 -23.8117 -23.8117 -23.7516 -23.7516 -23.6344 -23.6344
    -7.9972  -7.9972  -7.0604  -7.0604   4.5830   4.5830   5.6761   5.6761
     6.2298   6.2298   6.4425   6.4425   7.8375   7.8375   8.7415   8.7415
    12.0572

          k = 0.0000-0.5000 0.5175 (  1170 PWs)   bands (ev):

   -47.3491 -47.3491 -23.9932 -23.9932 -23.7299 -23.7299 -23.7125 -23.7125
    -7.6023  -7.6023  -7.1154  -7.1154   4.9385   4.9385   5.2469   5.2469
     6.0137   6.0137   6.8049   6.8049   7.6509   7.6509   8.4660   8.4660
    11.7712

          k =-0.5000-0.5000 0.0000 (  1148 PWs)   bands (ev):

   -47.3799 -47.3799 -23.8778 -23.8778 -23.6866 -23.6866 -23.6335 -23.6335
    -8.0729  -8.0729  -6.9520  -6.9520   3.9513   3.9513   5.5457   5.5457
     6.6391   6.6391   7.2770   7.2770   8.1764   8.1764   8.4356   8.4356
    11.4176

          k =-0.5000-0.5000 0.5175 (  1144 PWs)   bands (ev):

   -47.3488 -47.3488 -23.9784 -23.9784 -23.7746 -23.7746 -23.6826 -23.6826
    -7.3875  -7.3875  -7.3232  -7.3232   4.7424   4.7424   4.8601   4.8601
     6.1800   6.1800   7.1861   7.1861   7.9116   7.9116   8.4985   8.4985
    12.4376

     highest occupied, lowest unoccupied level (ev):     9.4823   11.3697

!    total energy              =    -362.34828190 Ry
     Harris-Foulkes estimate   =    -362.34828197 Ry
     estimated scf accuracy    <       0.00000009 Ry

     convergence has been achieved in  16 iterations

     Using ACE for calculation of exact exchange

     EXX grid:     9271 G-vectors     FFT dimensions: (  32,  32,  20)

     EXX: now go back to refine exchange calculation

     total cpu time spent up to now is      355.5 secs

     Self-consistent Calculation

     iteration #  1     ecut=    30.00 Ry     beta= 0.70
     Davidson diagonalization with overlap
     ethr =  3.08E-09,  avg # of iterations = 10.0

     total cpu time spent up to now is      356.2 secs

     total energy              =    -365.31929619 Ry
     Harris-Foulkes estimate   =    -365.38279357 Ry
     estimated scf accuracy    <       0.08400609 Ry

     iteration #  2     ecut=    30.00 Ry     beta= 0.70
     Davidson diagonalization with overlap
     ethr =  1.75E-04,  avg # of iterations =  4.0

     total cpu time spent up to now is      356.5 secs

     total energy              =    -361.89776036 Ry
     Harris-Foulkes estimate   =    -361.97881850 Ry
     estimated scf accuracy    <       0.20500675 Ry

     iteration #  3     ecut=    30.00 Ry     beta= 0.70
     Davidson diagonalization with overlap
     ethr =  1.75E-04,  avg # of iterations =  2.0

     total cpu time spent up to now is      356.7 secs

     total energy              =    -361.91235197 Ry
     Harris-Foulkes estimate   =    -361.91323274 Ry
     estimated scf accuracy    <       0.03777444 Ry

     iteration #  4     ecut=    30.00 Ry     beta= 0.70
     Davidson diagonalization with overlap
     ethr =  7.87E-05,  avg # of iterations =  1.0

     total cpu time spent up to now is      356.8 secs

     total energy              =    -361.92739999 Ry
     Harris-Foulkes estimate   =    -361.91274388 Ry
     estimated scf accuracy    <       0.03581636 Ry

     iteration #  5     ecut=    30.00 Ry     beta= 0.70
     Davidson diagonalization with overlap
     ethr =  7.46E-05,  avg # of iterations =  1.5

     total cpu time spent up to now is      356.9 secs

     total energy              =    -361.88431952 Ry
     Harris-Foulkes estimate   =    -361.92886055 Ry
     estimated scf accuracy    <       0.06841976 Ry

     iteration #  6     ecut=    30.00 Ry     beta= 0.70
     Davidson diagonalization with overlap
     ethr =  7.46E-05,  avg # of iterations =  3.0

     total cpu time spent up to now is      357.2 secs

     total energy              =    -361.89635559 Ry
     Harris-Foulkes estimate   =    -361.89660989 Ry
     estimated scf accuracy    <       0.00127914 Ry

     iteration #  7     ecut=    30.00 Ry     beta= 0.70
     Davidson diagonalization with overlap
     ethr =  2.66E-06,  avg # of iterations =  2.3

     total cpu time spent up to now is      357.3 secs

     total energy              =    -361.89630590 Ry
     Harris-Foulkes estimate   =    -361.89646064 Ry
     estimated scf accuracy    <       0.00086879 Ry

     iteration #  8     ecut=    30.00 Ry     beta= 0.70
     Davidson diagonalization with overlap
     ethr =  1.81E-06,  avg # of iterations =  2.0

     total cpu time spent up to now is      357.5 secs

     total energy              =    -361.89615645 Ry
     Harris-Foulkes estimate   =    -361.89637240 Ry
     estimated scf accuracy    <       0.00053696 Ry

     iteration #  9     ecut=    30.00 Ry     beta= 0.70
     Davidson diagonalization with overlap
     ethr =  1.12E-06,  avg # of iterations =  1.5

     total cpu time spent up to now is      357.6 secs

     total energy              =    -361.89614744 Ry
     Harris-Foulkes estimate   =    -361.89618333 Ry
     estimated scf accuracy    <       0.00012507 Ry

     iteration # 10     ecut=    30.00 Ry     beta= 0.70
     Davidson diagonalization with overlap
     ethr =  2.61E-07,  avg # of iterations =  2.0

     total cpu time spent up to now is      357.8 secs

     total energy              =    -361.89616204 Ry
     Harris-Foulkes estimate   =    -361.89616180 Ry
     estimated scf accuracy    <       0.00007113 Ry

     iteration # 11     ecut=    30.00 Ry     beta= 0.70
     Davidson diagonalization with overlap
     ethr =  1.48E-07,  avg # of iterations =  1.0

     total cpu time spent up to now is      357.9 secs

     total energy              =    -361.89615639 Ry
     Harris-Foulkes estimate   =    -361.89616277 Ry
     estimated scf accuracy    <       0.00007261 Ry

     iteration # 12     ecut=    30.00 Ry     beta= 0.70
     Davidson diagonalization with overlap
     ethr =  1.48E-07,  avg # of iterations =  1.0

     total cpu time spent up to now is      358.2 secs

     total energy              =    -361.89615936 Ry
     Harris-Foulkes estimate   =    -361.89615755 Ry
     estimated scf accuracy    <       0.00006097 Ry

     iteration # 13     ecut=    30.00 Ry     beta= 0.70
     Davidson diagonalization with overlap
     ethr =  1.27E-07,  avg # of iterations =  3.3

     total cpu time spent up to now is      358.5 secs

     total energy              =    -361.89614045 Ry
     Harris-Foulkes estimate   =    -361.89617942 Ry
     estimated scf accuracy    <       0.00015509 Ry

     iteration # 14     ecut=    30.00 Ry     beta= 0.70
     Davidson diagonalization with overlap
     ethr =  1.27E-07,  avg # of iterations =  3.0

     total cpu time spent up to now is      358.6 secs

     total energy              =    -361.89613338 Ry
     Harris-Foulkes estimate   =    -361.89614707 Ry
     estimated scf accuracy    <       0.00004418 Ry

     iteration # 15     ecut=    30.00 Ry     beta= 0.70
     Davidson diagonalization with overlap
     ethr =  9.20E-08,  avg # of iterations =  3.0

     total cpu time spent up to now is      358.8 secs

     total energy              =    -361.89613726 Ry
     Harris-Foulkes estimate   =    -361.89613770 Ry
     estimated scf accuracy    <       0.00000570 Ry

     iteration # 16     ecut=    30.00 Ry     beta= 0.70
     Davidson diagonalization with overlap
     ethr =  1.19E-08,  avg # of iterations =  3.0

     total cpu time spent up to now is      359.0 secs

     total energy              =    -361.89613797 Ry
     Harris-Foulkes estimate   =    -361.89613810 Ry
     estimated scf accuracy    <       0.00000297 Ry

     iteration # 17     ecut=    30.00 Ry     beta= 0.70
     Davidson diagonalization with overlap
     ethr =  6.19E-09,  avg # of iterations =  1.0

     total cpu time spent up to now is      359.1 secs

     total energy              =    -361.89613846 Ry
     Harris-Foulkes estimate   =    -361.89613800 Ry
     estimated scf accuracy    <       0.00000240 Ry

     iteration # 18     ecut=    30.00 Ry     beta= 0.70
     Davidson diagonalization with overlap
     ethr =  4.99E-09,  avg # of iterations =  1.0

     total cpu time spent up to now is      359.2 secs

     total energy              =    -361.89613674 Ry
     Harris-Foulkes estimate   =    -361.89613852 Ry
     estimated scf accuracy    <       0.00000389 Ry

     iteration # 19     ecut=    30.00 Ry     beta= 0.70
     Davidson diagonalization with overlap
     ethr =  4.99E-09,  avg # of iterations =  3.3

     total cpu time spent up to now is      359.4 secs

     End of self-consistent calculation

          k = 0.0000 0.0000 0.0000 (  1161 PWs)   bands (ev):

   -51.8460 -51.8276 -26.9753 -26.9753 -26.7897 -26.7897 -26.7444 -26.6994
   -11.2272  -9.9914  -9.1743  -9.1743   2.2529   2.6829   3.1276   4.2738
     4.2738   5.6853   5.6853   6.2712   7.7050   8.0259   8.0259   8.4735
    12.2535

          k = 0.0000 0.0000 0.5175 (  1158 PWs)   bands (ev):

   -51.8102 -51.8007 -27.0964 -27.0782 -26.8700 -26.8700 -26.7825 -26.7825
   -10.2357  -9.6071  -9.6071  -9.5544   3.5225   3.5767   4.1068   4.1068
     4.3419   4.4730   5.1315   6.3304   6.3304   6.7287   6.7287   7.4403
    12.6859

          k = 0.0000-0.5000 0.0000 (  1148 PWs)   bands (ev):

   -51.8334 -51.8334 -26.9109 -26.9109 -26.8484 -26.8484 -26.7186 -26.7186
   -10.4405 -10.4405  -9.4380  -9.4380   3.1746   3.1757   4.3338   4.3338
     4.9723   4.9724   5.2012   5.2014   6.6946   6.6946   7.6599   7.6599
    12.9984

          k = 0.0000-0.5000 0.5175 (  1170 PWs)   bands (ev):

   -51.8019 -51.8019 -27.1007 -27.1007 -26.8233 -26.8233 -26.8047 -26.8047
   -10.0173 -10.0173  -9.4925  -9.4925   3.5498   3.5499   3.8634   3.8634
     4.7078   4.7078   5.5422   5.5426   6.5048   6.5051   7.3855   7.3865
    12.6343

          k =-0.5000-0.5000 0.0000 (  1148 PWs)   bands (ev):

   -51.8346 -51.8346 -26.9862 -26.9862 -26.7731 -26.7731 -26.7220 -26.7220
   -10.5240 -10.5240  -9.3148  -9.3148   2.4874   2.4877   4.1995   4.1995
     5.3654   5.3654   6.1070   6.1070   7.0289   7.0289   7.3551   7.3551
    12.2884

          k =-0.5000-0.5000 0.5175 (  1144 PWs)   bands (ev):

   -51.8029 -51.8029 -27.0887 -27.0887 -26.8733 -26.8733 -26.7699 -26.7699
    -9.7830  -9.7830  -9.7142  -9.7142   3.3178   3.3178   3.4381   3.4381
     4.8903   4.8903   6.0137   6.0137   6.8120   6.8148   7.3778   7.3779
    13.3705

     highest occupied, lowest unoccupied level (ev):     8.4735   12.2535

!    total energy              =    -361.89613720 Ry
     Harris-Foulkes estimate   =    -361.89613739 Ry
     estimated scf accuracy    <       0.00000025 Ry

     convergence has been achieved in  19 iterations

     Using ACE for calculation of exact exchange

     total energy              =    -361.89898156 Ry
     Harris-Foulkes estimate   =    -361.89898176 Ry
     est. exchange err (dexx)  =       0.00284437 Ry
     - averaged Fock potential =      20.76970474 Ry
     + Fock energy (ACE)       =     -10.39059256 Ry

     EXX: now go back to refine exchange calculation

     total cpu time spent up to now is      714.9 secs

     Self-consistent Calculation

     iteration #  1     ecut=    30.00 Ry     beta= 0.70
     Davidson diagonalization with overlap
     ethr =  4.99E-09,  avg # of iterations =  5.8

     total cpu time spent up to now is      715.2 secs

     total energy              =    -361.89889938 Ry
     Harris-Foulkes estimate   =    -361.89988657 Ry
     estimated scf accuracy    <       0.00117804 Ry

     iteration #  2     ecut=    30.00 Ry     beta= 0.70
     Davidson diagonalization with overlap
     ethr =  2.45E-06,  avg # of iterations =  4.0

     total cpu time spent up to now is      715.5 secs

     total energy              =    -361.89907546 Ry
     Harris-Foulkes estimate   =    -361.90016453 Ry
     estimated scf accuracy    <       0.00240383 Ry

     iteration #  3     ecut=    30.00 Ry     beta= 0.70
     Davidson diagonalization with overlap
     ethr =  2.45E-06,  avg # of iterations =  3.3

     total cpu time spent up to now is      715.7 secs

     total energy              =    -361.89954064 Ry
     Harris-Foulkes estimate   =    -361.89954353 Ry
     estimated scf accuracy    <       0.00000522 Ry

     iteration #  4     ecut=    30.00 Ry     beta= 0.70
     Davidson diagonalization with overlap
     ethr =  1.09E-08,  avg # of iterations =  3.5

     total cpu time spent up to now is      715.9 secs

     End of self-consistent calculation

          k = 0.0000 0.0000 0.0000 (  1161 PWs)   bands (ev):

   -51.9568 -51.9385 -27.0692 -27.0692 -26.8864 -26.8863 -26.8415 -26.7969
   -11.2188  -9.9805  -9.1651  -9.1649   2.2440   2.6717   3.1324   4.2657
     4.2658   5.6799   5.6800   6.2703   7.7075   8.0266   8.0268   8.4745
    12.2061

          k = 0.0000 0.0000 0.5175 (  1158 PWs)   bands (ev):

   -51.9211 -51.9117 -27.1905 -27.1724 -26.9652 -26.9652 -26.8789 -26.8789
   -10.2284  -9.5966  -9.5963  -9.5453   3.5105   3.5622   4.1008   4.1009
     4.3374   4.4788   5.1296   6.3235   6.3237   6.7270   6.7272   7.4393
    12.6551

          k = 0.0000-0.5000 0.0000 (  1148 PWs)   bands (ev):

   -51.9448 -51.9447 -27.0063 -27.0060 -26.9450 -26.9446 -26.8166 -26.8166
   -10.4320 -10.4318  -9.4270  -9.4268   3.1679   3.1680   4.3258   4.3259
     4.9735   4.9742   5.1949   5.1950   6.6948   6.6948   7.6615   7.6616
    12.9501

          k = 0.0000-0.5000 0.5175 (  1170 PWs)   bands (ev):

   -51.9135 -51.9133 -27.1950 -27.1949 -26.9198 -26.9194 -26.9021 -26.9017
   -10.0061 -10.0059  -9.4842  -9.4840   3.5494   3.5494   3.8542   3.8543
     4.6959   4.6961   5.5404   5.5406   6.5021   6.5023   7.3835   7.3841
    12.6014

          k =-0.5000-0.5000 0.0000 (  1148 PWs)   bands (ev):

   -51.9458 -51.9457 -27.0806 -27.0805 -26.8707 -26.8706 -26.8191 -26.8190
   -10.5143 -10.5142  -9.3055  -9.3055   2.4773   2.4773   4.1916   4.1916
     5.3664   5.3665   6.1090   6.1098   7.0291   7.0291   7.3536   7.3538
    12.2414

          k =-0.5000-0.5000 0.5175 (  1144 PWs)   bands (ev):

   -51.9142 -51.9142 -27.1825 -27.1824 -26.9693 -26.9693 -26.8674 -26.8674
    -9.7747  -9.7746  -9.7034  -9.7034   3.3151   3.3152   3.4262   3.4263
     4.8837   4.8839   6.0058   6.0061   6.8123   6.8132   7.3794   7.3796
    13.3337

     highest occupied, lowest unoccupied level (ev):     8.4745   12.2061

!    total energy              =    -361.89954669 Ry
     Harris-Foulkes estimate   =    -361.89954714 Ry
     estimated scf accuracy    <       0.00000064 Ry

     convergence has been achieved in   4 iterations

     Using ACE for calculation of exact exchange

     total energy              =    -361.89968367 Ry
     Harris-Foulkes estimate   =    -361.89968411 Ry
     est. exchange err (dexx)  =       0.00013697 Ry
     - averaged Fock potential =      20.78463929 Ry
     + Fock energy (ACE)       =     -10.39418370 Ry

     EXX: now go back to refine exchange calculation

     total cpu time spent up to now is     1070.3 secs

     Self-consistent Calculation

     iteration #  1     ecut=    30.00 Ry     beta= 0.70
     Davidson diagonalization with overlap
     ethr =  1.09E-08,  avg # of iterations =  4.0

     total cpu time spent up to now is     1070.7 secs

     total energy              =    -361.89969782 Ry
     Harris-Foulkes estimate   =    -361.89973061 Ry
     estimated scf accuracy    <       0.00004005 Ry

     iteration #  2     ecut=    30.00 Ry     beta= 0.70
     Davidson diagonalization with overlap
     ethr =  8.34E-08,  avg # of iterations =  4.0

     total cpu time spent up to now is     1071.0 secs

     total energy              =    -361.89970381 Ry
     Harris-Foulkes estimate   =    -361.89974133 Ry
     estimated scf accuracy    <       0.00008348 Ry

     iteration #  3     ecut=    30.00 Ry     beta= 0.70
     Davidson diagonalization with overlap
     ethr =  8.34E-08,  avg # of iterations =  3.3

     total cpu time spent up to now is     1071.3 secs

     End of self-consistent calculation

          k = 0.0000 0.0000 0.0000 (  1161 PWs)   bands (ev):

   -51.9825 -51.9643 -27.0914 -27.0913 -26.9092 -26.9091 -26.8644 -26.8198
   -11.2166  -9.9776  -9.1624  -9.1623   2.2426   2.6690   3.1331   4.2631
     4.2631   5.6787   5.6788   6.2702   7.7080   8.0264   8.0265   8.4735
    12.1943

          k = 0.0000 0.0000 0.5175 (  1158 PWs)   bands (ev):

   -51.9468 -51.9375 -27.2127 -27.1947 -26.9876 -26.9876 -26.9017 -26.9017
   -10.2263  -9.5936  -9.5935  -9.5428   3.5083   3.5587   4.0996   4.0996
     4.3364   4.4794   5.1297   6.3226   6.3227   6.7260   6.7262   7.4377
    12.6475

          k = 0.0000-0.5000 0.0000 (  1148 PWs)   bands (ev):

   -51.9706 -51.9705 -27.0287 -27.0285 -26.9677 -26.9675 -26.8397 -26.8396
   -10.4296 -10.4295  -9.4239  -9.4238   3.1669   3.1669   4.3232   4.3232
     4.9735   4.9739   5.1936   5.1937   6.6956   6.6957   7.6603   7.6603
    12.9387

          k = 0.0000-0.5000 0.5175 (  1170 PWs)   bands (ev):

   -51.9393 -51.9392 -27.2172 -27.2171 -26.9424 -26.9422 -26.9250 -26.9248
   -10.0030 -10.0030  -9.4817  -9.4816   3.5496   3.5496   3.8518   3.8518
     4.6937   4.6937   5.5399   5.5400   6.5016   6.5017   7.3822   7.3825
    12.5929

          k =-0.5000-0.5000 0.0000 (  1148 PWs)   bands (ev):

   -51.9715 -51.9715 -27.1028 -27.1028 -26.8937 -26.8936 -26.8419 -26.8418
   -10.5117 -10.5116  -9.3028  -9.3028   2.4751   2.4752   4.1890   4.1891
     5.3660   5.3660   6.1092   6.1097   7.0292   7.0292   7.3536   7.3537
    12.2297

          k =-0.5000-0.5000 0.5175 (  1144 PWs)   bands (ev):

   -51.9400 -51.9400 -27.2046 -27.2045 -26.9919 -26.9919 -26.8903 -26.8903
    -9.7723  -9.7723  -9.7005  -9.7005   3.3145   3.3146   3.4239   3.4240
     4.8822   4.8823   6.0043   6.0044   6.8115   6.8119   7.3793   7.3793
    13.3242

     highest occupied, lowest unoccupied level (ev):     8.4735   12.1943

!    total energy              =    -361.89971958 Ry
     Harris-Foulkes estimate   =    -361.89971964 Ry
     estimated scf accuracy    <       0.00000012 Ry

     convergence has been achieved in   3 iterations

     Using ACE for calculation of exact exchange

     total energy              =    -361.89973066 Ry
     Harris-Foulkes estimate   =    -361.89973072 Ry
     est. exchange err (dexx)  =       0.00001108 Ry
     - averaged Fock potential =      20.78953515 Ry
     + Fock energy (ACE)       =     -10.39536252 Ry

     EXX: now go back to refine exchange calculation

     total cpu time spent up to now is     1432.4 secs

     Self-consistent Calculation

     iteration #  1     ecut=    30.00 Ry     beta= 0.70
     Davidson diagonalization with overlap
     ethr =  8.34E-08,  avg # of iterations =  3.0

     Threshold (ethr) on eigenvalues was too large:
     Diagonalizing with lowered threshold

     Davidson diagonalization with overlap
     ethr =  4.71E-09,  avg # of iterations =  2.8

     total cpu time spent up to now is     1432.8 secs

     total energy              =    -361.89973362 Ry
     Harris-Foulkes estimate   =    -361.89973558 Ry
     estimated scf accuracy    <       0.00000245 Ry

     iteration #  2     ecut=    30.00 Ry     beta= 0.70
     Davidson diagonalization with overlap
     ethr =  5.10E-09,  avg # of iterations =  4.0

     total cpu time spent up to now is     1433.1 secs

     total energy              =    -361.89973399 Ry
     Harris-Foulkes estimate   =    -361.89973618 Ry
     estimated scf accuracy    <       0.00000482 Ry

     iteration #  3     ecut=    30.00 Ry     beta= 0.70
     Davidson diagonalization with overlap
     ethr =  5.10E-09,  avg # of iterations =  3.3

     total cpu time spent up to now is     1433.3 secs

     End of self-consistent calculation

          k = 0.0000 0.0000 0.0000 (  1161 PWs)   bands (ev):

   -51.9866 -51.9684 -27.0949 -27.0949 -26.9128 -26.9128 -26.8680 -26.8234
   -11.2153  -9.9762  -9.1609  -9.1608   2.2432   2.6690   3.1337   4.2630
     4.2630   5.6791   5.6792   6.2711   7.7090   8.0270   8.0271   8.4735
    12.1928

          k = 0.0000 0.0000 0.5175 (  1158 PWs)   bands (ev):

   -51.9509 -51.9416 -27.2162 -27.1982 -26.9912 -26.9912 -26.9053 -26.9053
   -10.2250  -9.5921  -9.5920  -9.5415   3.5088   3.5585   4.1000   4.1000
     4.3370   4.4799   5.1306   6.3235   6.3235   6.7264   6.7264   7.4373
    12.6476

          k = 0.0000-0.5000 0.0000 (  1148 PWs)   bands (ev):

   -51.9747 -51.9746 -27.0322 -27.0321 -26.9713 -26.9712 -26.8433 -26.8432
   -10.4282 -10.4282  -9.4224  -9.4224   3.1676   3.1676   4.3231   4.3231
     4.9740   4.9742   5.1943   5.1943   6.6969   6.6969   7.6601   7.6602
    12.9375

          k = 0.0000-0.5000 0.5175 (  1170 PWs)   bands (ev):

   -51.9434 -51.9434 -27.2206 -27.2206 -26.9459 -26.9458 -26.9286 -26.9286
   -10.0016 -10.0015  -9.4803  -9.4803   3.5504   3.5504   3.8519   3.8519
     4.6941   4.6941   5.5405   5.5406   6.5022   6.5023   7.3823   7.3824
    12.5924

          k =-0.5000-0.5000 0.0000 (  1148 PWs)   bands (ev):

   -51.9756 -51.9756 -27.1064 -27.1063 -26.8974 -26.8974 -26.8454 -26.8454
   -10.5103 -10.5103  -9.3014  -9.3013   2.4754   2.4755   4.1890   4.1890
     5.3663   5.3664   6.1098   6.1101   7.0301   7.0301   7.3546   7.3547
    12.2282

          k =-0.5000-0.5000 0.5175 (  1144 PWs)   bands (ev):

   -51.9441 -51.9441 -27.2080 -27.2080 -26.9955 -26.9955 -26.8940 -26.8940
    -9.7710  -9.7710  -9.6991  -9.6990   3.3151   3.3151   3.4243   3.4243
     4.8826   4.8827   6.0049   6.0049   6.8117   6.8118   7.3799   7.3799
    13.3235

     highest occupied, lowest unoccupied level (ev):     8.4735   12.1928

!    total energy              =    -361.89973492 Ry
     Harris-Foulkes estimate   =    -361.89973492 Ry
     estimated scf accuracy    <       0.00000002 Ry

     convergence has been achieved in   3 iterations

     Using ACE for calculation of exact exchange

     total energy              =    -361.89973639 Ry
     Harris-Foulkes estimate   =    -361.89973640 Ry
     est. exchange err (dexx)  =       0.00000148 Ry
     - averaged Fock potential =      20.79093140 Ry
     + Fock energy (ACE)       =     -10.39557036 Ry

     EXX: now go back to refine exchange calculation

     total cpu time spent up to now is     1787.3 secs

     Self-consistent Calculation

     iteration #  1     ecut=    30.00 Ry     beta= 0.70
     Davidson diagonalization with overlap
     ethr =  5.10E-09,  avg # of iterations =  3.3

     Threshold (ethr) on eigenvalues was too large:
     Diagonalizing with lowered threshold

     Davidson diagonalization with overlap
     ethr =  3.40E-10,  avg # of iterations =  3.2

     total cpu time spent up to now is     1787.8 secs

     End of self-consistent calculation

          k = 0.0000 0.0000 0.0000 (  1161 PWs)   bands (ev):

   -51.9861 -51.9679 -27.0944 -27.0944 -26.9123 -26.9123 -26.8675 -26.8229
   -11.2150  -9.9757  -9.1604  -9.1604   2.2437   2.6694   3.1338   4.2633
     4.2633   5.6793   5.6793   6.2715   7.7095   8.0272   8.0272   8.4732
    12.1935

          k = 0.0000 0.0000 0.5175 (  1158 PWs)   bands (ev):

   -51.9504 -51.9411 -27.2157 -27.1977 -26.9907 -26.9907 -26.9048 -26.9048
   -10.2246  -9.5916  -9.5916  -9.5410   3.5093   3.5589   4.1004   4.1004
     4.3373   4.4799   5.1311   6.3240   6.3240   6.7265   6.7265   7.4368
    12.6489

          k = 0.0000-0.5000 0.0000 (  1148 PWs)   bands (ev):

   -51.9742 -51.9742 -27.0317 -27.0317 -26.9708 -26.9707 -26.8428 -26.8428
   -10.4278 -10.4278  -9.4219  -9.4219   3.1680   3.1680   4.3234   4.3234
     4.9742   4.9743   5.1947   5.1948   6.6975   6.6975   7.6598   7.6598
    12.9382

          k = 0.0000-0.5000 0.5175 (  1170 PWs)   bands (ev):

   -51.9429 -51.9429 -27.2202 -27.2202 -26.9454 -26.9454 -26.9281 -26.9281
   -10.0011 -10.0011  -9.4798  -9.4798   3.5507   3.5507   3.8522   3.8523
     4.6946   4.6946   5.5408   5.5408   6.5026   6.5026   7.3821   7.3822
    12.5934

          k =-0.5000-0.5000 0.0000 (  1148 PWs)   bands (ev):

   -51.9751 -51.9751 -27.1059 -27.1059 -26.8969 -26.8969 -26.8449 -26.8449
   -10.5099 -10.5099  -9.3009  -9.3009   2.4759   2.4759   4.1893   4.1893
     5.3663   5.3663   6.1100   6.1101   7.0305   7.0305   7.3551   7.3551
    12.2288

          k =-0.5000-0.5000 0.5175 (  1144 PWs)   bands (ev):

   -51.9436 -51.9436 -27.2075 -27.2075 -26.9950 -26.9950 -26.8935 -26.8935
    -9.7705  -9.7705  -9.6986  -9.6986   3.3153   3.3153   3.4247   3.4247
     4.8830   4.8830   6.0053   6.0054   6.8116   6.8117   7.3801   7.3801
    13.3244

     highest occupied, lowest unoccupied level (ev):     8.4732   12.1935

!    total energy              =    -361.89973692 Ry
     Harris-Foulkes estimate   =    -361.89973703 Ry
     estimated scf accuracy    <       0.00000014 Ry

     convergence has been achieved in   1 iterations

     Using ACE for calculation of exact exchange

!!   total energy              =    -361.89973718 Ry
     Harris-Foulkes estimate   =    -361.89973729 Ry
     est. exchange err (dexx)  =       0.00000026 Ry
     - averaged Fock potential =      20.79120777 Ry
     + Fock energy (ACE)       =     -10.39563768 Ry

     EXX self-consistency reached

     Writing output data file pwscf.save/
 
     init_run     :      0.14s CPU      0.24s WALL (       1 calls)
     electrons    :      8.66s CPU     11.12s WALL (       6 calls)

     Called by init_run:
     wfcinit      :      0.04s CPU      0.05s WALL (       1 calls)
     potinit      :      0.01s CPU      0.01s WALL (       1 calls)
     hinit0       :      0.08s CPU      0.16s WALL (       1 calls)

     Called by electrons:
     c_bands      :      7.36s CPU      9.65s WALL (      48 calls)
     sum_band     :      0.87s CPU      0.99s WALL (      48 calls)
     v_of_rho     :      0.09s CPU      0.11s WALL (      48 calls)
     newd         :      0.31s CPU      0.31s WALL (      47 calls)
     mix_rho      :      0.04s CPU      0.03s WALL (      48 calls)

     Called by c_bands:
     init_us_2    :      0.14s CPU      0.18s WALL (    1518 calls)
     cegterg      :      7.10s CPU      9.30s WALL (     288 calls)

     Called by sum_band:
     sum_band:bec :      0.01s CPU      0.01s WALL (     288 calls)
     addusdens    :      0.35s CPU      0.37s WALL (      48 calls)

     Called by *egterg:
     h_psi        :      2.91s CPU      3.64s WALL (    1178 calls)
     s_psi        :      0.16s CPU      0.20s WALL (    1178 calls)
     g_psi        :      0.02s CPU      0.02s WALL (     884 calls)
     cdiaghg      :      3.08s CPU      4.05s WALL (    1130 calls)

     Called by h_psi:
     h_psi:pot    :      2.73s CPU      3.39s WALL (    1178 calls)
     h_psi:calbec :      0.41s CPU      0.45s WALL (    1178 calls)
     vloc_psi     :      2.15s CPU      2.73s WALL (    1178 calls)
     add_vuspsi   :      0.17s CPU      0.21s WALL (    1178 calls)

     General routines
     calbec       :      0.63s CPU      0.78s WALL (    2442 calls)
     fft          :      0.06s CPU      0.12s WALL (     521 calls)
     ffts         :      0.00s CPU      0.01s WALL (      48 calls)
     fftw         :      2.20s CPU      2.86s WALL (   47342 calls)
     fftc         :    128.32s CPU    247.95s WALL (  540000 calls)
     fftcw        :      0.15s CPU      0.21s WALL (    2700 calls)
 
     Parallel routines
     fft_scatt_xy :      3.73s CPU      4.30s WALL (  590611 calls)
     fft_scatt_yz :    108.92s CPU    224.47s WALL (  590611 calls)

     EXX routines
     exx_grid     :      0.00s CPU      0.00s WALL (       1 calls)
     exxinit      :      0.32s CPU      0.46s WALL (       6 calls)
     vexx         :   1950.88s CPU   2135.19s WALL (      36 calls)
     matcalc      :      0.17s CPU      0.23s WALL (     940 calls)
     aceupdate    :      0.00s CPU      0.00s WALL (      36 calls)
     vexxace      :      0.22s CPU      0.28s WALL (     838 calls)
     aceinit      :   1950.89s CPU   2135.21s WALL (      36 calls)

     EXX+US  routines
     becxx        :      0.00s CPU      0.00s WALL (       6 calls)
     addusxx      :    883.24s CPU    923.03s WALL (  270000 calls)
     newdxx       :    913.66s CPU    936.01s WALL (  270000 calls)
     qvan_init    :      2.40s CPU      2.60s WALL (     432 calls)
     nlxx_pot     :      0.11s CPU      0.11s WALL (     900 calls)
 
     PWSCF        :  32m40.64s CPU  35m48.07s WALL

 
   This run was terminated on:  14:12:57  13Dec2021            

=------------------------------------------------------------------------------=
   JOB DONE.
=------------------------------------------------------------------------------=
